TITLE = "Patch Test A - Full Displacement BC"
VARIABLES = "X", "Y", "U", "V"
ZONE T="FE_Patch", N=8, E=5, F=FEPOINT, ET=QUADRILATERAL
0.00  0.00   0.0000   0.0000
2.50  0.00   0.0250   0.0000
2.50  3.00   0.0250  -0.0090
0.00  2.00   0.0000  -0.0060
0.50  0.50   0.0050  -0.0015
2.00  0.75   0.0200  -0.00225
1.75  1.75   0.0175  -0.00525
0.65  1.60   0.0065  -0.00480
1 2 6 5
2 3 7 6
3 4 8 7
4 1 5 8
5 6 7 8